TITLE = "Pathfinder plot"
VARIABLES = "X", "Y","rho","U","V","W","T","MOMxx","MOMyy","MOMzz","MOMxy","MOMxz","MOMyz","Qx","Qy","Qz"
ZONE f=point
0.00892857 0.00892857 1.71957e+19 -0.0132536 0.0291501 -0.021274 273.033 0.064893 0.0647549 0.064816 2.0308e-06 4.39001e-07 -1.17687e-06 -0.00492202 4.51613e-05 -6.23912e-05
0.00892857 0.0625 1.72028e+19 0.00151718 0.181865 -0.0480578 273.096 0.064984 0.0647538 0.0648513 -1.6925e-05 -1.84871e-05 -3.29474e-06 -0.0109426 0.00689293 0.00612807
0.00892857 0.0267857 1.71964e+19 -0.0454413 0.0655026 -0.0460961 273.044 0.0649135 0.0647568 0.06481 -8.22733e-06 3.51072e-06 1.89281e-06 -0.00963234 0.00156983 0.000173173
0.00892857 0.0446429 1.71993e+19 -0.0243001 0.135506 0.003153 273.026 0.0649188 0.0647505 0.0648309 -7.24174e-06 -8.58204e-08 -7.15366e-06 -0.00985678 0.00644309 0.000199733
0.00892857 0.0982143 1.7215e+19 -0.0276747 0.281829 0.02489 272.95 0.0650061 0.0647375 0.0648789 -3.98262e-05 1.7527e-05 -6.71838e-06 -0.0169608 0.000743911 0.00282436
0.00892857 0.116071 1.72167e+19 -0.0733122 0.388434 0.00551053 273.001 0.0650231 0.0647431 0.0649119 -4.92208e-05 2.86818e-06 -2.5188e-06 -0.0137853 0.000205107 0.00179632
0.00892857 0.0803571 1.72088e+19 -0.0317476 0.215678 -0.0774588 272.958 0.0649667 0.0647428 0.0648488 -3.88302e-05 8.53357e-07 2.05787e-06 -0.0127112 0.00562976 0.0100587
0.00892857 0.169643 1.7216e+19 -0.103869 0.663793 0.0186259 273.015 0.0650679 0.064701 0.0649122 -0.000104539 -1.12828e-05 -7.45562e-06 -0.00572295 0.00341039 0.00471145
0.00892857 0.133929 1.72185e+19 -0.0219287 0.479503 0.0592224 272.994 0.0650468 0.064724 0.0649235 -6.01685e-05 -5.23887e-06 7.40632e-06 -0.018401 -0.00513845 0.000716763
0.00892857 0.1875 1.72203e+19 -0.0421423 0.852381 -0.0319927 273.031 0.0651053 0.0646908 0.0649444 -0.000130117 -1.80385e-06 3.37334e-06 -0.0142209 0.00370304 0.00141113
0.00892857 0.151786 1.72149e+19 -0.0300741 0.565421 0.0551934 273.041 0.0650605 0.0647176 0.0649081 -8.20781e-05 1.14944e-05 2.67845e-06 -0.0166001 -0.000707233 0.0010189
0.00892857 0.241071 1.72093e+19 -0.0498956 1.20257 0.029276 273.074 0.0651045 0.064645 0.0648979 -0.000206104 1.99109e-06 1.4903e-05 -0.0183814 0.00214739 -0.00393043
0.00892857 0.205357 1.72206e+19 -0.0589832 0.93271 0.00608201 273.022 0.0651099 0.0646666 0.0649616 -0.000158114 2.93287e-06 1.428e-05 -0.0095128 0.000333158 0.00411576
0.00892857 0.258929 1.72057e+19 -0.111712 1.34562 0.00697571 273.032 0.0650897 0.0646209 0.0648653 -0.000224895 2.39894e-06 1.89688e-05 -0.0175114 0.00173494 0.00066046
0.00892857 0.223214 1.72186e+19 -0.0619644 1.09604 -0.0426376 273.058 0.0651236 0.0646737 0.0649433 -0.000188162 -4.43834e-06 1.74262e-05 -0.0204615 0.00377577 0.00257852
0.00892857 0.276786 1.72025e+19 -0.0561537 1.53475 0.013993 272.986 0.0650544 0.0645915 0.0648611 -0.000249192 -3.82435e-07 8.60932e-06 -0.0233221 -0.00152413 0.00237823
0.00892857 0.366071 1.71741e+19 -0.071258 2.35147 0.0308907 272.889 0.0649973 0.0643896 0.0647304 -0.000406652 2.087e-06 8.21094e-07 -0.0148505 -0.000135142 0.00424547
0.00892857 0.330357 1.71807e+19 -0.086818 1.98855 -0.0366422 272.96 0.0650002 0.0644694 0.064773 -0.000332833 2.16293e-06 3.08137e-06 -0.0195902 -0.00136654 -0.000526708
0.00892857 0.294643 1.72015e+19 -0.0966726 1.64925 0.0545142 272.963 0.0650515 0.0645714 0.064857 -0.00027601 -7.56471e-06 2.57896e-06 -0.0193683 0.00097134 0.00344766
0.00892857 0.348214 1.71806e+19 -0.0851991 2.16475 -0.0323271 272.915 0.0650088 0.0644225 0.0647782 -0.000395809 3.14947e-06 2.3376e-06 -0.0190633 -0.00483551 0.00952816
0.00892857 0.3125 1.71893e+19 -0.0440265 1.8368 0.0663448 272.933 0.0650288 0.064509 0.0647834 -0.000288262 1.27782e-05 -1.22795e-06 -0.0235099 -0.00231456 -0.00715993
0.00892857 0.473214 1.70852e+19 -0.0787858 3.52585 0.00907187 272.84 0.0646991 0.0640239 0.0643544 -0.00060019 -8.27161e-07 8.69136e-06 -0.0147471 -0.00726471 -0.00476028
0.00892857 0.4375 1.71147e+19 -0.109627 3.11334 0.0279602 272.96 0.0648247 0.0641647 0.0645071 -0.000534985 9.84198e-07 -7.44747e-06 -0.0147902 -0.00627699 -0.00500076
0.00892857 0.401786 1.71435e+19 -0.101682 2.72953 0.0351247 272.859 0.0648836 0.0642682 0.0645984 -0.000459702 1.3767e-05 -5.96032e-06 -0.0179139 -0.00315653 0.00140903
0.00892857 0.491071 1.70715e+19 -0.173384 3.77558 0.00799297 272.785 0.0646393 0.06394 0.0643044 -0.000643343 2.82901e-06 -2.73878e-06 -0.00684625 -0.0140231 -0.00433084
0.00892857 0.455357 1.71027e+19 -0.087296 3.32305 0.0103269 272.882 0.0647612 0.0641031 0.0644416 -0.000572317 -1.17539e-05 4.2741e-06 -0.0131576 -0.00669822 -0.00436315
0.00892857 0.419643 1.71295e+19 -0.0903009 2.91037 0.0680901 272.902 0.0648568 0.0642127 0.0645524 -0.00049775 1.49042e-05 -7.00341e-06 -0.0150172 -0.00486333 0.000773617
0.00892857 0.383929 1.71654e+19 -0.105498 2.50438 -0.0375436 272.885 0.0649936 0.0643325 0.0646903 -0.000425538 -2.98416e-05 -1.0265e-05 -0.0174034 0.00480254 0.00694579
0.00892857 0.544643 1.6995e+19 -0.121227 4.52182 -0.0158897 272.816 0.0643381 0.0636463 0.0640573 -0.000769205 4.4598e-08 -1.37861e-06 -0.00762161 -0.0130762 0.00217408
0.00892857 0.508929 1.70459e+19 -0.0932786 4.00732 0.055309 272.781 0.0645253 0.0638404 0.064227 -0.000701306 7.10435e-06 -2.24826e-06 -0.0048527 -0.0109145 0.00167606
0.00892857 0.598214 1.69086e+19 -0.107385 5.28915 -0.00135563 272.722 0.0640095 0.0632892 0.0637011 -0.000888651 -6.24568e-06 -1.68258e-06 0.00165378 -0.0173478 -0.010237
0.00892857 0.5625 1.69756e+19 -0.148951 4.7651 0.0261489 272.779 0.0642583 0.0635577 0.0639802 -0.00081692 1.65363e-05 2.26373e-06 -0.00175043 -0.013018 0.00627049
0.00892857 0.526786 1.70194e+19 -0.109567 4.25213 0.0097145 272.797 0.0644522 0.0637398 0.0641126 -0.000720401 -2.52538e-06 -4.30441e-06 -0.0132345 -0.0112256 -0.00151314
0.00892857 0.616071 1.68709e+19 -0.146017 5.53654 -0.030659 272.715 0.0638431 0.0631588 0.0635663 -0.000926349 -3.70721e-06 6.67327e-06 0.0123819 -0.0215191 0.00396389
0.00892857 0.580357 1.69456e+19 -0.0954183 5.04787 0.0284098 272.761 0.0641449 0.063434 0.0638661 -0.000860127 -2.27055e-06 1.45734e-05 -0.00212817 -0.0161938 -0.00327334
0.00892857 0.669643 1.67501e+19 -0.167319 6.4304 0.00446146 272.657 0.063359 0.0627202 0.0630848 -0.00106807 -3.40188e-06 9.80133e-06 0.0254799 -0.0212319 -0.000484643
0.00892857 0.633929 1.68357e+19 -0.109417 5.8294 -0.0395199 272.688 0.0637078 0.0630125 0.0634319 -0.000982286 -1.25514e-05 1.09811e-05 0.019877 -0.0277262 0.00434825
0.00892857 0.651786 1.67984e+19 -0.133566 6.11465 -0.0309638 272.585 0.0635382 0.0628632 0.0632588 -0.00101547 4.66343e-06 5.90528e-06 0.0191312 -0.0215545 0.00743963
0.00892857 0.741071 1.65358e+19 -0.138276 7.74267 -0.0460933 272.376 0.0624225 0.061888 0.0622411 -0.00125499 -6.98313e-06 1.10594e-05 0.0544159 -0.0323021 0.00199853
0.00892857 0.705357 1.66483e+19 -0.146389 7.07839 -0.0269498 272.556 0.0629145 0.0623314 0.0626989 -0.00116551 7.59905e-07 2.86047e-06 0.0380768 -0.0311301 -0.00601155
0.00892857 0.723214 1.65965e+19 -0.146665 7.41501 -0.018577 272.456 0.0626892 0.062118 0.0624839 -0.00121581 -7.74543e-06 1.36849e-05 0.0458926 -0.0343847 -0.00167377
0.00892857 0.6875 1.67074e+19 -0.110901 6.76176 0.00295222 272.593 0.0631689 0.0625558 0.0629124 -0.00111861 -3.42242e-07 8.9275e-07 0.029592 -0.0286703 -0.00839191
0.00892857 0.776786 1.64077e+19 -0.161555 8.35944 0.0343583 272.277 0.0618709 0.0614177 0.0617502 -0.00134955 -5.8086e-06 1.47029e-05 0.0698104 -0.0357825 -0.00138488
0.00892857 0.794643 1.63353e+19 -0.205171 8.768 -0.0156622 272.209 0.0615419 0.0611522 0.0614824 -0.00140893 2.23717e-06 1.28104e-05 0.079775 -0.0449514 0.00653346
0.00892857 0.758929 1.64711e+19 -0.113785 8.03097 0.0230636 272.388 0.0621597 0.0616619 0.062008 -0.00130839 -2.11763e-05 6.27541e-06 0.0568549 -0.0324653 -0.000235332
0.00892857 0.8125 1.62491e+19 -0.160197 9.16367 0.00887157 272.07 0.0611343 0.0608615 0.0611147 -0.00146652 1.94163e-06 1.02829e-05 0.0952203 -0.0461142 0.00548586
0.00892857 0.866071 1.5944e+19 -0.198629 10.3248 0.0454476 271.74 0.0597026 0.0597996 0.0599528 -0.00159713 -1.79432e-06 -1.19128e-05 0.136772 -0.0638102 0.00442639
0.00892857 0.830357 1.61516e+19 -0.131387 9.56062 -0.0128138 271.946 0.0606646 0.0605169 0.0607471 -0.00150502 -9.14548e-06 -1.25792e-05 0.105596 -0.0477346 0.00654757
0.00892857 0.848214 1.60523e+19 -0.154032 9.93525 0.0108519 271.839 0.0602288 0.06017 0.060341 -0.001547 8.17226e-06 -1.00721e-05 0.121582 -0.0580853 0.00680751
0.00892857 0.973214 1.4902e+19 0.408023 11.5888 0.0549288 270.917 0.054291 0.0569254 0.0560025 -0.0021131 2.74732e-06 1.33835e-05 0.256565 -0.0961752 -0.00341168
0.00892857 0.9375 1.53411e+19 -0.158475 11.8898 0.0298351 271.152 0.0567789 0.0578694 0.0576473 -0.00181019 4.0986e-06 -7.07349e-06 0.210121 -0.0868724 -0.00123017
0.00892857 0.901786 1.56758e+19 -0.197646 11.1096 -0.0443489 271.448 0.0584359 0.0589131 0.0588974 -0.00169619 -4.18818e-06 -2.24805e-06 0.170154 -0.0680694 0.0010331
0.00892857 0.991071 1.48138e+19 5.63214 6.85013 0.0349408 272.074 0.0536745 0.0575319 0.0557325 -0.00351911 -2.05834e-07 5.21012e-06 0.269839 -0.063611 -0.00132931
0.00892857 0.955357 1.51387e+19 -0.0402109 12.0859 -0.0184015 270.95 0.0556864 0.0573219 0.0568878 -0.00190482 8.90702e-06 1.53033e-05 0.232745 -0.0906468 -0.00217913
0.00892857 0.919643 1.55215e+19 -0.107193 11.5357 0.0482806 271.286 0.0576773 0.0584028 0.0583279 -0.00173927 -3.54116e-06 -1.29276e-06 0.184225 -0.0788454 0.00196654
0.00892857 0.883929 1.58132e+19 -0.109165 10.756 -0.0133485 271.64 0.0590967 0.0593698 0.0594505 -0.0016444 -6.05281e-06 -6.83894e-06 0.15107 -0.0677556 -0.00080032
0.0267857 0.00892857 1.71912e+19 -0.0798813 0.0267878 0.061392 273.03 0.0648912 0.0647183 0.0648018 7.91277e-06 -6.92621e-06 -1.24978e-05 -0.00705302 0.00220602 -0.00355035
0.0267857 0.0625 1.72049e+19 -0.0934829 0.172396 -0.00139833 272.991 0.0649769 0.0646977 0.0648636 -1.37635e-05 -1.15221e-05 4.27047e-06 -0.0133656 0.00263222 0.00238146
0.0267857 0.0267857 1.71943e+19 -0.0911046 0.0948115 0.0236382 273.008 0.0649113 0.0647196 0.0647992 9.11183e-06 -1.23336e-06 -7.73863e-06 -0.0106936 0.00581804 7.8633e-05
0.0267857 0.0446429 1.72016e+19 -0.0635795 0.121469 -0.0426583 272.959 0.0649342 0.0647047 0.0648389 -9.0776e-06 3.6361e-06 8.05171e-07 -0.0144704 0.00492293 0.0116393
0.0267857 0.0982143 1.72076e+19 -0.165849 0.391848 0.0681164 272.975 0.0650009 0.0646806 0.0648758 -3.20984e-05 1.04646e-05 -3.04876e-06 -0.0108993 0.00519619 -0.00525329
0.0267857 0.116071 1.72108e+19 -0.167483 0.560499 0.0238053 272.924 0.065045 0.0646547 0.0648571 -3.08368e-05 -2.483e-06 4.10183e-07 -0.0129819 0.00429364 -0.00256809
0.0267857 0.0803571 1.72071e+19 -0.104669 0.312831 -0.0275049 273.038 0.0649866 0.0647071 0.0649029 -2.27934e-05 1.13926e-05 -6.80854e-06 -0.00898029 0.00537123 0.00216295
0.0267857 0.169643 1.72123e+19 -0.222026 0.920212 -0.0479138 273.003 0.0651009 0.0646448 0.0648844 -9.17475e-05 -4.96464e-06 -8.82326e-06 -0.0124122 -0.00078482 0.0064346
0.0267857 0.133929 1.72097e+19 -0.106266 0.641896 -0.000821443 273.023 0.0650722 0.0646578 0.0648853 -7.04027e-05 2.40069e-06 -7.53864e-06 -0.0167736 0.00253086 -0.00183996
0.0267857 0.1875 1.72167e+19 -0.224382 1.03861 0.00109955 273.004 0.0651328 0.0646349 0.0649131 -0.000121202 -9.20863e-06 -1.42775e-05 -0.0100248 0.0013161 -0.00099941
0.0267857 0.151786 1.72107e+19 -0.176175 0.778394 -0.0411832 272.989 0.0650699 0.0646479 0.0648849 -7.40389e-05 1.07631e-05 -1.17432e-05 -0.0156431 -0.00111439 0.00708101
0.0267857 0.241071 1.72036e+19 -0.160962 1.58036 0.0184352 272.998 0.0651112 0.064559 0.0648588 -0.000184457 -7.97265e-06 1.09504e-05 -0.0177039 -0.00501106 0.00554672
0.0267857 0.205357 1.72162e+19 -0.218312 1.24768 0.0483218 273.041 0.0651373 0.0646356 0.0649281 -0.000150666 -1.43161e-05 7.51957e-07 -0.0134069 0.0016701 -0.00015382
0.0267857 0.258929 1.71995e+19 -0.217722 1.69374 -0.0118243 272.995 0.0651187 0.0645338 0.0648277 -0.000192356 2.27687e-05 2.9975e-06 -0.023352 -0.00504775 -0.00356016
0.0267857 0.223214 1.72155e+19 -0.205028 1.43239 -0.032947 272.977 0.0651416 0.0646013 0.0649059 -0.000166906 5.37493e-07 6.25011e-06 -0.0129659 -0.00157436 0.00675447
0.0267857 0.276786 1.71893e+19 -0.257075 1.89976 -0.0432501 272.956 0.065078 0.0644798 0.0647791 -0.000215561 -4.20919e-06 5.68379e-06 -0.0166954 -0.00295824 -0.000754509
0.0267857 0.366071 1.71575e+19 -0.247611 2.97582 -0.0875451 272.883 0.064998 0.0642552 0.0646724 -0.000354504 2.19421e-06 1.65132e-05 -0.015723 -0.0117157 0.00976831
0.0267857 0.330357 1.71755e+19 -0.252541 2.52992 0.013471 272.893 0.065043 0.0643754 0.0647178 -0.000294002 -5.33091e-06 1.54698e-05 -0.0207097 -0.0120596 0.000655999
0.0267857 0.294643 1.71882e+19 -0.316427 2.12355 -0.0231739 272.908 0.0650626 0.0644465 0.0647806 -0.000240228 3.51364e-06 8.06195e-06 -0.0211118 -0.00948282 -0.00095125
0.0267857 0.348214 1.71717e+19 -0.312055 2.73421 -0.00850973 272.913 0.0650506 0.0643371 0.0647196 -0.000335177 6.32633e-06 1.9621e-05 -0.0178895 -0.00958962 0.00523162
0.0267857 0.3125 1.71807e+19 -0.229047 2.35443 0.0235211 272.991 0.0650598 0.0644224 0.0647823 -0.000261643 1.2854e-05 1.38912e-05 -0.0184508 -0.0103451 -0.0050214
0.0267857 0.473214 1.70758e+19 -0.357433 4.45747 0.0433102 272.813 0.064734 0.0638827 0.0643355 -0.000531154 -1.10216e-06 -1.23588e-06 -0.0128356 -0.02234 -0.00660593
0.0267857 0.4375 1.71047e+19 -0.334083 3.85782 0.0402557 272.884 0.0648397 0.0640407 0.0644485 -0.000474529 -1.10965e-05 1.30005e-05 -0.00539613 -0.0153915 -0.00471955
0.0267857 0.401786 1.71357e+19 -0.325985 3.39812 0.072074 272.879 0.0649284 0.0641778 0.0645699 -0.000405858 4.79459e-06 -1.37277e-05 -0.0190347 -0.0102004 -0.00505667
0.0267857 0.491071 1.70574e+19 -0.3572 4.74128 0.0550422 272.805 0.0646735 0.0638011 0.0642644 -0.000563823 -8.82041e-06 -6.76569e-08 -0.0108162 -0.0180352 0.00193215
0.0267857 0.455357 1.70909e+19 -0.36602 4.15895 0.000606105 272.848 0.0647928 0.0639669 0.0643886 -0.000495316 -5.01816e-06 -3.44172e-06 -0.011362 -0.0186938 -0.00277449
0.0267857 0.419643 1.71246e+19 -0.267934 3.62644 0.0765255 272.922 0.0649085 0.0641171 0.0645561 -0.000446934 5.65193e-07 1.99184e-06 -0.0131408 -0.0145506 -0.00550969
0.0267857 0.383929 1.71491e+19 -0.284442 3.21426 0.0528056 272.88 0.0650025 0.0642058 0.0646209 -0.000373943 -1.4691e-05 2.14245e-06 -0.0170434 -0.0163458 0.00209181
0.0267857 0.544643 1.69896e+19 -0.404141 5.68288 -0.0124133 272.767 0.0643992 0.0635377 0.0640087 -0.000681998 5.25829e-06 2.25395e-06 -0.00182079 -0.0256575 0.00355143
0.0267857 0.508929 1.70358e+19 -0.395362 5.0516 0.0719174 272.827 0.0645622 0.06372 0.0642284 -0.000598718 1.12673e-05 1.77083e-05 -0.00625304 -0.0163503 -0.0047954
0.0267857 0.598214 1.69015e+19 -0.337753 6.64447 0.0498851 272.681 0.0640505 0.0631542 0.0636856 -0.000758815 1.70239e-07 5.85558e-06 0.00522716 -0.0438455 -0.00519631
0.0267857 0.5625 1.69574e+19 -0.431686 5.9781 -0.011075 272.774 0.0642717 0.0634174 0.0638977 -0.000703402 5.9042e-06 1.13816e-05 0.00338492 -0.0321095 0.00473703
0.0267857 0.526786 1.70166e+19 -0.393787 5.38695 -0.000579416 272.712 0.0644925 0.0636202 0.0640998 -0.000644978 -6.96544e-06 1.57093e-05 -0.00695843 -0.0224428 -0.00124066
0.0267857 0.616071 1.6866e+19 -0.45357 6.95317 0.0538408 272.646 0.0638972 0.0630175 0.0635511 -0.000797354 -1.33738e-05 1.34214e-05 0.0155805 -0.0478155 -0.00144628
0.0267857 0.580357 1.69318e+19 -0.38062 6.355 0.018203 272.707 0.0641785 0.0632769 0.0637952 -0.000731657 5.94749e-06 -3.59618e-06 -0.000242351 -0.0385038 -0.00206273
0.0267857 0.669643 1.6749e+19 -0.475943 8.07293 0.0205806 272.493 0.0633986 0.0625714 0.0630674 -0.00092412 2.89641e-06 8.07033e-06 0.0309366 -0.0493048 -0.00119244
0.0267857 0.633929 1.68319e+19 -0.454109 7.32379 0.0410432 272.585 0.0637521 0.0628835 0.0634025 -0.000841697 -1.389e-06 5.79231e-06 0.0206628 -0.0444257 -0.0034156
0.0267857 0.6875 1.67055e+19 -0.45736 8.37882 -0.025596 272.438 0.0632045 0.0624065 0.062898 -0.000937621 1.1426e-06 4.57757e-06 0.0333357 -0.0526599 -0.00692611
0.0267857 0.651786 1.67916e+19 -0.439074 7.70132 -0.0379398 272.532 0.0635782 0.0627413 0.0632268 -0.000885718 -7.58767e-06 1.07197e-06 0.019261 -0.0477641 0.0032838
0.0267857 0.741071 1.6542e+19 -0.45058 9.54021 -0.0237759 272.301 0.0624638 0.0618329 0.0622727 -0.00106113 -1.28956e-05 2.19527e-06 0.0544289 -0.0642978 -0.00153708
0.0267857 0.705357 1.66505e+19 -0.491667 8.77071 -0.0532973 272.409 0.0629752 0.0622209 0.0626722 -0.000976893 -5.31306e-06 1.52329e-05 0.0441047 -0.05537 0.00387514
0.0267857 0.723214 1.65953e+19 -0.480208 9.16107 -0.0432563 272.347 0.0627194 0.062024 0.0624595 -0.00102579 2.3764e-06 3.87834e-07 0.0510028 -0.0627128 0.00188864
0.0267857 0.8125 1.62668e+19 -0.523513 11.142 -0.0107173 271.973 0.0611621 0.060898 0.0611851 -0.00118003 7.40773e-06 -2.08501e-05 0.097943 -0.0871473 7.4832e-05
0.0267857 0.776786 1.64179e+19 -0.50911 10.3624 -0.0240031 272.27 0.0619184 0.0614265 0.061805 -0.00112845 -9.8278e-06 3.31495e-06 0.0755636 -0.080231 -0.00119348
0.0267857 0.794643 1.63482e+19 -0.536286 10.7288 -0.0570456 272.088 0.0615795 0.0611705 0.0614901 -0.0011501 4.97584e-06 -1.45848e-05 0.0862634 -0.0829599 0.00349836
0.0267857 0.758929 1.6475e+19 -0.445948 9.95992 -0.0558199 272.325 0.0621779 0.0616253 0.0620276 -0.00109107 -1.40599e-05 5.68775e-06 0.0621577 -0.0768206 -4.57168e-07
0.0267857 0.866071 1.5986e+19 -0.442002 12.2311 0.0456752 271.636 0.0597532 0.0600131 0.0600926 -0.00125247 -7.22476e-06 -1.33007e-05 0.139746 -0.0972951 0.00095353
0.0267857 0.830357 1.61792e+19 -0.481418 11.4991 -0.0475433 271.855 0.0607186 0.0606154 0.0608455 -0.00120506 5.4147e-06 -5.85008e-06 0.112193 -0.0908529 -0.000650156
0.0267857 0.848214 1.60856e+19 -0.485922 11.8867 0.0122722 271.693 0.0602508 0.0603084 0.0604584 -0.00125085 4.98264e-06 -1.45866e-05 0.124703 -0.0928848 -0.000489145
0.0267857 0.973214 1.52925e+19 3.68726 8.19973 0.0496801 272.038 0.0552143 0.0595437 0.0575522 -0.00260853 4.64301e-06 -8.24311e-07 0.243598 -0.109644 0.00556795
0.0267857 0.9375 1.54961e+19 0.146744 12.3393 0.031907 271.287 0.0569086 0.0589802 0.0582335 -0.0015204 -5.11673e-06 -7.0562e-06 0.211196 -0.129439 -0.00533046
0.0267857 0.901786 1.57501e+19 -0.318029 12.6512 0.030247 271.445 0.0584781 0.0594017 0.0592008 -0.00132958 3.11219e-06 -7.05521e-06 0.17116 -0.114763 0.0010969
0.0267857 0.991071 1.54399e+19 13.2986 2.63043 -0.0127933 273.51 0.0564339 0.0603264 0.0581527 -0.00447113 4.04623e-06 3.72603e-06 0.213322 -0.0103999 -0.000713372
0.0267857 0.955357 1.53675e+19 1.01125 11.1719 -0.0911957 271.454 0.055966 0.0590416 0.0577764 -0.00180414 -5.46077e-06 3.06884e-07 0.229892 -0.12765 0.00373212
0.0267857 0.919643 1.56303e+19 -0.213648 12.6859 0.0630005 271.252 0.0577487 0.0591444 0.058715 -0.00139676 4.38748e-07 -1.34265e-05 0.194409 -0.11728 0.000349658
0.0267857 0.883929 1.58721e+19 -0.388713 12.4554 0.0325764 271.506 0.0591431 0.0597097 0.0596386 -0.0012916 -1.31449e-05 -1.3559e-05 0.153505 -0.105659 -0.000825197
0.0446429 0.00892857 1.71934e+19 -0.148216 0.0418315 -0.0013828 273.016 0.0648964 0.0647121 0.0648173 2.22991e-05 -2.7477e-06 1.73373e-05 -0.00887455 0.0114699 0.00179388
0.0446429 0.0625 1.72017e+19 -0.200743 0.275842 -0.0621558 273.004 0.0649834 0.0646788 0.064849 -4.23833e-06 -9.99306e-06 -4.36122e-06 -0.0127294 0.00566313 -0.00135353
0.0446429 0.0267857 1.71933e+19 -0.0974556 0.0848901 -0.0331414 273.026 0.0649149 0.0646834 0.0648344 1.53125e-05 -9.88952e-06 2.61787e-06 -0.016611 0.0106305 0.00543614
0.0446429 0.0446429 1.7199e+19 -0.128154 0.133171 -0.135348 273.035 0.0649557 0.0646884 0.0648586 -4.5132e-07 -5.91824e-07 2.58859e-06 -0.00914691 0.0111656 0.00885249
0.0446429 0.133929 1.72063e+19 -0.228392 0.814874 0.0282972 272.992 0.0650808 0.0646136 0.0648603 -4.19343e-05 1.75772e-05 3.36104e-06 -0.0139429 0.00441519 -0.00281505
0.0446429 0.0982143 1.72035e+19 -0.262758 0.567469 -0.00292654 272.934 0.0650164 0.0646336 0.0648311 -1.99363e-05 8.77075e-06 -1.05577e-05 -0.0122161 0.00259607 -0.00321913
0.0446429 0.116071 1.72066e+19 -0.289284 0.653379 -0.0885815 272.976 0.0650566 0.0646305 0.0648592 -2.89187e-05 -8.84958e-07 -8.87937e-07 -0.00978375 0.00251159 -0.000780058
0.0446429 0.0803571 1.71992e+19 -0.263498 0.418718 0.0198453 273.027 0.0649858 0.0646529 0.0648602 8.42202e-06 1.49083e-06 -2.2382e-06 -0.00738763 0.00426047 0.00243412
0.0446429 0.169643 1.72141e+19 -0.303793 1.08779 0.0415652 272.941 0.0651255 0.0645924 0.0648887 -8.5397e-05 -5.87603e-06 1.21528e-05 -0.0127434 -0.0037326 -0.00499399
0.0446429 0.1875 1.72104e+19 -0.386614 1.2152 -0.0862687 273.065 0.0651685 0.0645782 0.0649065 -0.000115728 -1.18307e-05 2.05118e-05 -0.00701148 -0.00347909 0.00715599
0.0446429 0.151786 1.72088e+19 -0.323765 0.936603 0.0618731 272.959 0.0650863 0.0646147 0.0648588 -7.04225e-05 -8.11176e-06 1.17733e-05 -0.0139021 0.00233752 -0.00249769
0.0446429 0.241071 1.7196e+19 -0.371328 1.79035 -0.0723167 273.054 0.0651547 0.0644792 0.064848 -0.000143927 1.0794e-05 7.54391e-06 -0.0168458 -0.00134667 -0.00171396
0.0446429 0.205357 1.72105e+19 -0.432485 1.40032 -0.00943748 272.951 0.0651483 0.0645523 0.0648722 -0.000120866 -1.31442e-05 9.33207e-06 -0.0153427 -0.000322797 0.00326516
0.0446429 0.258929 1.71872e+19 -0.425966 2.05324 -0.0478376 272.97 0.0650954 0.0644364 0.0647914 -0.0001605 -1.77206e-06 1.16013e-05 -0.0149451 -0.00223757 -0.000249713
0.0446429 0.223214 1.72003e+19 -0.394306 1.57859 0.0275628 273.005 0.065146 0.0645128 0.0648368 -0.000128636 -8.04255e-07 1.34058e-05 -0.0152021 -0.00235027 0.00261238
0.0446429 0.276786 1.71853e+19 -0.453278 2.2043 0.0721634 273.011 0.0651213 0.0644199 0.0647897 -0.000169799 -8.49836e-06 1.33396e-05 -0.0142527 -0.00787564 -0.00346845
0.0446429 0.366071 1.71528e+19 -0.507352 3.44666 0.0706047 272.942 0.0650476 0.0642096 0.0646578 -0.000306773 1.35715e-05 1.16915e-05 -0.0104909 -0.0133955 0.0052722
0.0446429 0.330357 1.71702e+19 -0.438928 2.94696 0.0800357 272.934 0.0650818 0.0643161 0.0647074 -0.000251892 5.95754e-06 6.44179e-06 -0.0210782 -0.0162153 -9.13928e-05
0.0446429 0.294643 1.71757e+19 -0.50556 2.42655 -0.0211235 272.974 0.0650793 0.064357 0.0647603 -0.00019918 3.0576e-06 1.84739e-05 -0.0232149 -0.0089028 0.00262529
0.0446429 0.383929 1.71394e+19 -0.536949 3.70436 0.106275 272.951 0.0650262 0.0641508 0.0645923 -0.000333491 -8.78984e-06 4.21785e-06 -0.0149899 -0.0138055 -0.00405557
0.0446429 0.348214 1.71641e+19 -0.575153 3.16838 0.0498096 272.918 0.0650651 0.0642633 0.0646963 -0.000272336 -2.23991e-07 4.94335e-06 -0.0204922 -0.0152134 -0.0020625
0.0446429 0.3125 1.71769e+19 -0.50359 2.66325 0.0208709 272.889 0.0650819 0.0643326 0.0647349 -0.000233787 1.49954e-05 6.54602e-06 -0.0147746 -0.00936352 -0.00474944
0.0446429 0.473214 1.70723e+19 -0.689885 5.17098 0.0290156 272.843 0.0647695 0.0638263 0.0643378 -0.000455607 3.7499e-07 -9.66328e-06 -0.00911367 -0.03091 0.00493256
0.0446429 0.4375 1.70951e+19 -0.625339 4.49388 0.036456 272.923 0.0648432 0.0639382 0.0644669 -0.000400862 -1.11672e-05 -8.36155e-06 -0.0070998 -0.0259381 0.000762147
0.0446429 0.401786 1.71273e+19 -0.510697 3.94051 -0.0419688 272.917 0.0649553 0.06409 0.0645627 -0.000351739 3.85105e-06 7.2826e-06 -0.0179608 -0.0211434 0.00279022
0.0446429 0.491071 1.70541e+19 -0.628895 5.49719 0.0304697 272.819 0.0646976 0.0637372 0.0642767 -0.000486193 -8.59024e-06 -5.24037e-06 -0.00981809 -0.0329768 0.00842246
0.0446429 0.455357 1.70891e+19 -0.687025 4.83693 0.0248597 272.836 0.0648295 0.0638957 0.0643942 -0.000430229 -9.32352e-06 5.53084e-06 -0.0109467 -0.0282794 -0.00241551
0.0446429 0.419643 1.71121e+19 -0.534663 4.22057 -0.0294406 272.979 0.0649302 0.064035 0.0645152 -0.000388958 1.97352e-05 -1.68215e-06 -0.00808777 -0.021384 0.00430342
0.0446429 0.544643 1.69788e+19 -0.719569 6.41554 -0.012767 272.729 0.0644034 0.0634192 0.063975 -0.000571189 9.61621e-06 7.73141e-07 0.00132337 -0.0405687 0.00587951
0.0446429 0.508929 1.70296e+19 -0.689536 5.74837 0.0679496 272.803 0.0646031 0.0636412 0.0641787 -0.000504384 -1.09849e-05 -1.57418e-06 -0.00427331 -0.0355193 -0.00209848
0.0446429 0.598214 1.68939e+19 -0.689799 7.50624 0.0477827 272.739 0.0640613 0.0630983 0.0636864 -0.000648155 -3.32555e-07 1.08767e-05 0.0102845 -0.0483779 -0.00177951
0.0446429 0.5625 1.69534e+19 -0.740609 6.81704 0.00723978 272.695 0.0643181 0.0633201 0.0638488 -0.000594639 2.09344e-05 -7.4309e-06 0.00816885 -0.0453669 0.000911673
0.0446429 0.526786 1.70112e+19 -0.720762 6.05017 -0.0112771 272.781 0.0645325 0.0635529 0.0641151 -0.000543718 1.80906e-06 6.5864e-08 -0.0016025 -0.0354939 0.00128997
0.0446429 0.616071 1.68655e+19 -0.789284 7.91054 0.0170424 272.645 0.0639335 0.0629842 0.063542 -0.000682104 -1.77178e-05 3.96614e-06 0.0189137 -0.0534112 0.00243747
0.0446429 0.580357 1.69223e+19 -0.747826 7.09418 -0.01216 272.734 0.0642041 0.063203 0.0637552 -0.000626022 -4.51296e-07 2.6955e-06 0.00673275 -0.0454092 -0.0038744
0.0446429 0.669643 1.67496e+19 -0.816451 9.02875 -0.00937462 272.47 0.0634371 0.062546 0.0630458 -0.000759632 -7.8803e-06 1.65161e-05 0.0335677 -0.0626727 -0.00439149
0.0446429 0.633929 1.68283e+19 -0.807206 8.25277 0.0413087 272.625 0.0637949 0.0628549 0.0633753 -0.000706654 -7.1194e-07 6.5709e-06 0.020406 -0.058764 -0.00415598
0.0446429 0.6875 1.6697e+19 -0.81408 9.46698 0.0177268 272.462 0.0632162 0.0623628 0.0628508 -0.000785689 1.8696e-06 1.32722e-05 0.0375001 -0.0701556 -0.00844943
0.0446429 0.651786 1.67886e+19 -0.843301 8.67718 -0.0552968 272.561 0.0636036 0.0627037 0.0632249 -0.000731488 -2.8403e-06 7.74179e-06 0.023145 -0.0604904 -0.00221431
0.0446429 0.741071 1.65458e+19 -0.814183 10.591 0.0710666 272.294 0.0625029 0.0618453 0.0622599 -0.000881606 -5.68385e-06 -6.1041e-06 0.0631753 -0.0858683 -0.00528055
0.0446429 0.705357 1.66564e+19 -0.833521 9.85544 0.0187719 272.38 0.0630139 0.0622167 0.0626843 -0.000800785 5.17729e-06 5.30111e-06 0.0478445 -0.0694333 0.00100206
0.0446429 0.723214 1.66028e+19 -0.85562 10.2206 0.080477 272.343 0.0627699 0.0620306 0.0624837 -0.00083928 3.27094e-06 -2.81272e-06 0.0528764 -0.0782033 -0.00311209
0.0446429 0.776786 1.64298e+19 -0.818474 11.4234 0.0219031 272.155 0.0619297 0.0614571 0.061818 -0.000934075 1.00454e-05 -2.04117e-05 0.0765498 -0.0982934 -0.00108481
0.0446429 0.794643 1.63646e+19 -0.869931 11.7422 -0.0325814 272.039 0.0615788 0.0612658 0.0615471 -0.000928973 -1.61004e-06 -1.41899e-05 0.0918186 -0.1024 -0.00419505
0.0446429 0.758929 1.64855e+19 -0.865129 11.0418 0.0548838 272.237 0.0622107 0.0616562 0.0620222 -0.000925587 -2.57759e-05 -1.09769e-05 0.0693186 -0.0893455 -0.00380212
0.0446429 0.8125 1.6294e+19 -0.823196 12.1053 -0.0578207 271.906 0.0611988 0.0610516 0.061256 -0.00094902 -3.11696e-06 2.09638e-06 0.100203 -0.109121 0.00166617
0.0446429 0.866071 1.60349e+19 -0.561711 12.7186 0.000860568 271.671 0.0597682 0.0604026 0.0602618 -0.00103524 6.08501e-06 -1.29473e-05 0.142189 -0.121316 -0.00358997
0.0446429 0.830357 1.62096e+19 -0.762413 12.4123 0.056996 271.808 0.0607384 0.0608271 0.0609243 -0.000956983 6.16678e-06 -5.14481e-06 0.113867 -0.118915 -0.00835684
0.0446429 0.848214 1.61293e+19 -0.624561 12.6197 -0.00706605 271.732 0.0602907 0.0606158 0.0606281 -0.000994718 3.29722e-06 -6.66884e-06 0.127137 -0.119195 -0.00318668
0.0446429 0.973214 1.5613e+19 7.86633 5.49723 -0.0334304 272.741 0.0565555 0.0610394 0.0587821 -0.00321325 -1.0017e-06 3.40237e-06 0.220614 -0.0775971 -0.0039246
0.0446429 0.9375 1.56655e+19 1.30412 10.9217 0.0309418 271.698 0.0571933 0.0602083 0.0588916 -0.00159752 -6.82679e-06 -3.51012e-06 0.212142 -0.136133 0.00637649
0.0446429 0.901786 1.58476e+19 -0.173194 12.6041 -0.00491475 271.566 0.0585741 0.060127 0.0595545 -0.00117585 -1.05001e-05 -1.62993e-05 0.172392 -0.132883 0.00140162
0.0446429 0.991071 1.57616e+19 17.3527 1.5012 -0.0308674 273.823 0.0580153 0.0613458 0.0594005 -0.00460307 9.12807e-06 -9.19055e-06 0.162303 0.021291 -0.000532866
0.0446429 0.955357 1.56027e+19 3.40427 8.89768 -0.0601432 272.125 0.0566133 0.0605387 0.0587109 -0.00216943 3.09004e-07 -5.2677e-06 0.220888 -0.120496 0.00199149
0.0446429 0.919643 1.57496e+19 0.329201 12.0711 -0.0367477 271.579 0.0578976 0.0600933 0.0591705 -0.00131166 -1.81325e-06 -5.05451e-06 0.191085 -0.138871 0.00327957
0.0446429 0.883929 1.59408e+19 -0.391 12.7716 -0.0421287 271.62 0.0591896 0.0602314 0.059918 -0.00106695 -8.64291e-06 -2.05945e-05 0.156894 -0.129196 -0.000510095
0.0625 0.00892857 1.71926e+19 -0.192538 0.00764994 -0.0273932 272.965 0.0648838 0.0646818 0.0648143 3.32745e-05 1.2407e-05 8.03186e-06 -0.00949836 0.00678403 0.000596263
0.0625 0.0625 1.71939e+19 -0.319918 0.359459 -0.02439 273.027 0.0649616 0.064631 0.0648468 1.13301e-05 5.79561e-06 -3.30677e-06 -0.0105476 0.00800494 0.00207038
0.0625 0.0267857 1.71981e+19 -0.192309 0.0930735 -0.0391578 272.962 0.064925 0.064679 0.0648363 1.7478e-05 -1.72931e-06 -1.40472e-06 -0.0147027 0.00485971 -0.00150863
0.0625 0.0446429 1.71998e+19 -0.258433 0.224931 -0.0951071 272.995 0.0649691 0.0646623 0.0648526 2.10002e-05 -8.57053e-06 -9.4344e-06 -0.00493171 0.00614186 0.0032603
0.0625 0.133929 1.72041e+19 -0.401645 0.895791 -0.021616 273.01 0.0651042 0.0645871 0.0648508 -3.34277e-05 7.24458e-06 -1.2279e-05 -0.0153203 -0.000382229 -0.00091162
0.0625 0.0982143 1.7202e+19 -0.388198 0.628175 0.0282304 272.993 0.06504 0.0646198 0.0648473 9.28292e-06 -7.58462e-07 -1.23473e-06 -0.00588756 0.000586554 -0.00181565
0.0625 0.116071 1.72022e+19 -0.42424 0.716049 0.0238513 273.001 0.0650768 0.0645934 0.0648444 -3.0228e-05 7.72128e-07 6.19555e-07 -0.0129654 -0.00023103 -0.00741933
0.0625 0.0803571 1.71979e+19 -0.424048 0.473958 0.00444965 273.028 0.0649983 0.0646299 0.0648575 9.30177e-06 1.86712e-05 -1.24659e-05 -0.00641558 0.00391092 -0.00375892
0.0625 0.205357 1.71985e+19 -0.591331 1.57417 -0.0716112 273.008 0.0651691 0.0644834 0.0648257 -8.26239e-05 -8.2453e-06 5.83865e-06 -0.00954354 0.000125282 0.000680875
0.0625 0.169643 1.7205e+19 -0.468158 1.24496 -0.0123846 273.002 0.0651498 0.0645349 0.0648627 -6.88515e-05 -6.2182e-06 -2.01649e-06 -0.0134292 -0.000632681 -0.00245277